Program Version,EnergyPlus, Version 9.0.1-bb7ca4f0da, YMD=2020.04.18 06:09
1,5,Environment Title[],Latitude[deg],Longitude[deg],Time Zone[],Elevation[m]
2,8,Day of Simulation[],Month[],Day of Month[],DST Indicator[1=yes 0=no],Hour[],StartMinute[],EndMinute[],DayType
3,5,Cumulative Day of Simulation[],Month[],Day of Month[],DST Indicator[1=yes 0=no],DayType  ! When Daily Meters Requested
4,2,Cumulative Days of Simulation[],Month[]  ! When Monthly Meters Requested
5,1,Cumulative Days of Simulation[] ! When Run Period Meters Requested
6,1,Calendar Year of Simulation[] ! When Annual Meters Requested
69,1,Electricity:Facility [J] !Hourly
216,1,InteriorEquipment:Electricity [J] !Hourly
105,1,InteriorLights:Electricity [J] !Hourly
70,7,Electricity:Facility [J] !Daily [Value,Min,Hour,Minute,Max,Hour,Minute]
217,7,InteriorEquipment:Electricity [J] !Daily [Value,Min,Hour,Minute,Max,Hour,Minute]
106,7,InteriorLights:Electricity [J] !Daily [Value,Min,Hour,Minute,Max,Hour,Minute]
71,9,Electricity:Facility [J] !Monthly [Value,Min,Day,Hour,Minute,Max,Day,Hour,Minute]
218,9,InteriorEquipment:Electricity [J] !Monthly [Value,Min,Day,Hour,Minute,Max,Day,Hour,Minute]
107,9,InteriorLights:Electricity [J] !Monthly [Value,Min,Day,Hour,Minute,Max,Day,Hour,Minute]
73,11,Electricity:Facility [J] !RunPeriod [Value,Min,Month,Day,Hour,Minute,Max,Month,Day,Hour,Minute]
220,11,InteriorEquipment:Electricity [J] !RunPeriod [Value,Min,Month,Day,Hour,Minute,Max,Month,Day,Hour,Minute]
109,11,InteriorLights:Electricity [J] !RunPeriod [Value,Min,Month,Day,Hour,Minute,Max,Month,Day,Hour,Minute]
129,1,ELECTRIC EQUIPMENT#Blocco1:Corridoio#GeneralLights:InteriorLights:Electricity [J] !Hourly
240,1,ELECTRIC EQUIPMENT#Blocco1:Room407#05:InteriorEquipment:Electricity [J] !Hourly
166,1,ELECTRIC EQUIPMENT#Blocco1:Room407#GeneralLights:InteriorLights:Electricity [J] !Hourly
270,1,ELECTRIC EQUIPMENT#Blocco1:Room408#05:InteriorEquipment:Electricity [J] !Hourly
203,1,ELECTRIC EQUIPMENT#Blocco1:Room408#GeneralLights:InteriorLights:Electricity [J] !Hourly
130,7,ELECTRIC EQUIPMENT#Blocco1:Corridoio#GeneralLights:InteriorLights:Electricity [J] !Daily [Value,Min,Hour,Minute,Max,Hour,Minute]
241,7,ELECTRIC EQUIPMENT#Blocco1:Room407#05:InteriorEquipment:Electricity [J] !Daily [Value,Min,Hour,Minute,Max,Hour,Minute]
167,7,ELECTRIC EQUIPMENT#Blocco1:Room407#GeneralLights:InteriorLights:Electricity [J] !Daily [Value,Min,Hour,Minute,Max,Hour,Minute]
271,7,ELECTRIC EQUIPMENT#Blocco1:Room408#05:InteriorEquipment:Electricity [J] !Daily [Value,Min,Hour,Minute,Max,Hour,Minute]
204,7,ELECTRIC EQUIPMENT#Blocco1:Room408#GeneralLights:InteriorLights:Electricity [J] !Daily [Value,Min,Hour,Minute,Max,Hour,Minute]
131,9,ELECTRIC EQUIPMENT#Blocco1:Corridoio#GeneralLights:InteriorLights:Electricity [J] !Monthly [Value,Min,Day,Hour,Minute,Max,Day,Hour,Minute]
242,9,ELECTRIC EQUIPMENT#Blocco1:Room407#05:InteriorEquipment:Electricity [J] !Monthly [Value,Min,Day,Hour,Minute,Max,Day,Hour,Minute]
168,9,ELECTRIC EQUIPMENT#Blocco1:Room407#GeneralLights:InteriorLights:Electricity [J] !Monthly [Value,Min,Day,Hour,Minute,Max,Day,Hour,Minute]
272,9,ELECTRIC EQUIPMENT#Blocco1:Room408#05:InteriorEquipment:Electricity [J] !Monthly [Value,Min,Day,Hour,Minute,Max,Day,Hour,Minute]
205,9,ELECTRIC EQUIPMENT#Blocco1:Room408#GeneralLights:InteriorLights:Electricity [J] !Monthly [Value,Min,Day,Hour,Minute,Max,Day,Hour,Minute]
133,11,ELECTRIC EQUIPMENT#Blocco1:Corridoio#GeneralLights:InteriorLights:Electricity [J] !RunPeriod [Value,Min,Month,Day,Hour,Minute,Max,Month,Day,Hour,Minute]
244,11,ELECTRIC EQUIPMENT#Blocco1:Room407#05:InteriorEquipment:Electricity [J] !RunPeriod [Value,Min,Month,Day,Hour,Minute,Max,Month,Day,Hour,Minute]
170,11,ELECTRIC EQUIPMENT#Blocco1:Room407#GeneralLights:InteriorLights:Electricity [J] !RunPeriod [Value,Min,Month,Day,Hour,Minute,Max,Month,Day,Hour,Minute]
274,11,ELECTRIC EQUIPMENT#Blocco1:Room408#05:InteriorEquipment:Electricity [J] !RunPeriod [Value,Min,Month,Day,Hour,Minute,Max,Month,Day,Hour,Minute]
207,11,ELECTRIC EQUIPMENT#Blocco1:Room408#GeneralLights:InteriorLights:Electricity [J] !RunPeriod [Value,Min,Month,Day,Hour,Minute,Max,Month,Day,Hour,Minute]
696,1,DistrictHeating:Facility [J] !Hourly
928,1,DistrictCooling:Facility [J] !Hourly
1053,1,Carbon Equivalent:Facility [kg] !Hourly
929,7,DistrictCooling:Facility [J] !Daily [Value,Min,Hour,Minute,Max,Hour,Minute]
697,7,DistrictHeating:Facility [J] !Daily [Value,Min,Hour,Minute,Max,Hour,Minute]
1054,7,Carbon Equivalent:Facility [kg] !Daily [Value,Min,Hour,Minute,Max,Hour,Minute]
930,9,DistrictCooling:Facility [J] !Monthly [Value,Min,Day,Hour,Minute,Max,Day,Hour,Minute]
698,9,DistrictHeating:Facility [J] !Monthly [Value,Min,Day,Hour,Minute,Max,Day,Hour,Minute]
1055,9,Carbon Equivalent:Facility [kg] !Monthly [Value,Min,Day,Hour,Minute,Max,Day,Hour,Minute]
932,11,DistrictCooling:Facility [J] !RunPeriod [Value,Min,Month,Day,Hour,Minute,Max,Month,Day,Hour,Minute]
700,11,DistrictHeating:Facility [J] !RunPeriod [Value,Min,Month,Day,Hour,Minute,Max,Month,Day,Hour,Minute]
1057,11,Carbon Equivalent:Facility [kg] !RunPeriod [Value,Min,Month,Day,Hour,Minute,Max,Month,Day,Hour,Minute]
End of Data Dictionary
1,BUILDLAB (01-01:31-12),  45.22,   7.65,   1.00, 287.00
2,1, 1, 1, 0, 1, 0.00,60.00,Sunday
69,501943.71157761607
105,0.0
129,0.0
166,0.0
203,0.0
216,501943.71157761607
240,250965.09197172
270,250978.61960589604
696,0.0
928,0.0
1053,0.0
2,1, 1, 1, 0, 2, 0.00,60.00,Sunday
69,501943.71157761607
105,0.0
129,0.0
166,0.0
203,0.0
216,501943.71157761607
240,250965.09197172
270,250978.61960589604
696,0.0
928,0.0
1053,0.0
2,1, 1, 1, 0, 3, 0.00,60.00,Sunday
69,501943.71157761607
105,0.0
129,0.0
166,0.0
203,0.0
216,501943.71157761607
240,250965.09197172
270,250978.61960589604
696,0.0
928,0.0
1053,0.0
2,1, 1, 1, 0, 4, 0.00,60.00,Sunday
69,501943.71157761607
105,0.0
129,0.0
166,0.0
203,0.0
216,501943.71157761607
240,250965.09197172
270,250978.61960589604
696,0.0
928,0.0
1053,0.0
2,1, 1, 1, 0, 5, 0.00,60.00,Sunday
69,501943.71157761607
105,0.0
129,0.0
166,0.0
203,0.0
216,501943.71157761607
240,250965.09197172
270,250978.61960589604
696,0.0
928,0.0
1053,0.0
2,1, 1, 1, 0, 6, 0.00,60.00,Sunday
69,501943.71157761607
105,0.0
129,0.0
166,0.0
203,0.0
216,501943.71157761607
240,250965.09197172
270,250978.61960589604
696,0.0
928,0.0
1053,0.0
2,1, 1, 1, 0, 7, 0.00,60.00,Sunday
69,501943.71157761607
105,0.0
129,0.0
166,0.0
203,0.0
216,501943.71157761607
240,250965.09197172
270,250978.61960589604
696,0.0
928,0.0
1053,0.0
2,1, 1, 1, 0, 8, 0.00,60.00,Sunday
69,501943.71157761607
105,0.0
129,0.0
166,0.0
203,0.0
216,501943.71157761607
240,250965.09197172
270,250978.61960589604
696,0.0
928,0.0
1053,0.0
2,1, 1, 1, 0, 9, 0.00,60.00,Sunday
69,501943.71157761607
105,0.0
129,0.0
166,0.0
203,0.0
216,501943.71157761607
240,250965.09197172
270,250978.61960589604
696,0.0
928,0.0
1053,0.0
2,1, 1, 1, 0,10, 0.00,60.00,Sunday
69,501943.71157761607
105,0.0
129,0.0
166,0.0
203,0.0
216,501943.71157761607
240,250965.09197172
270,250978.61960589604
696,0.0
928,0.0
1053,0.0
2,1, 1, 1, 0,11, 0.00,60.00,Sunday
69,501943.71157761607
105,0.0
129,0.0
166,0.0
203,0.0
216,501943.71157761607
240,250965.09197172
270,250978.61960589604
696,0.0
928,0.0
1053,0.0
2,1, 1, 1, 0,12, 0.00,60.00,Sunday
69,501943.71157761607
105,0.0
129,0.0
166,0.0
203,0.0
216,501943.71157761607
240,250965.09197172
270,250978.61960589604
696,0.0
928,0.0
1053,0.0
2,1, 1, 1, 0,13, 0.00,60.00,Sunday
69,501943.71157761607
105,0.0
129,0.0
166,0.0
203,0.0
216,501943.71157761607
240,250965.09197172
270,250978.61960589604
696,0.0
928,0.0
1053,0.0
2,1, 1, 1, 0,14, 0.00,60.00,Sunday
69,501943.71157761607
105,0.0
129,0.0
166,0.0
203,0.0
216,501943.71157761607
240,250965.09197172
270,250978.61960589604
696,0.0
928,0.0
1053,0.0
2,1, 1, 1, 0,15, 0.00,60.00,Sunday
69,501943.71157761607
105,0.0
129,0.0
166,0.0
203,0.0
216,501943.71157761607
240,250965.09197172
270,250978.61960589604
696,0.0
928,0.0
1053,0.0
2,1, 1, 1, 0,16, 0.00,60.00,Sunday
69,501943.71157761607
105,0.0
129,0.0
166,0.0
203,0.0
216,501943.71157761607
240,250965.09197172
270,250978.61960589604
696,0.0
928,0.0
1053,0.0
2,1, 1, 1, 0,17, 0.00,60.00,Sunday
69,501943.71157761607
105,0.0
129,0.0
166,0.0
203,0.0
216,501943.71157761607
240,250965.09197172
270,250978.61960589604
696,0.0
928,0.0
1053,0.0
2,1, 1, 1, 0,18, 0.00,60.00,Sunday
69,501943.71157761607
105,0.0
129,0.0
166,0.0
203,0.0
216,501943.71157761607
240,250965.09197172
270,250978.61960589604
696,0.0
928,0.0
1053,0.0
2,1, 1, 1, 0,19, 0.00,60.00,Sunday
69,501943.71157761607
105,0.0
129,0.0
166,0.0
203,0.0
216,501943.71157761607
240,250965.09197172
270,250978.61960589604
696,0.0
928,0.0
1053,0.0
2,1, 1, 1, 0,20, 0.00,60.00,Sunday
69,501943.71157761607
105,0.0
129,0.0
166,0.0
203,0.0
216,501943.71157761607
240,250965.09197172
270,250978.61960589604
696,0.0
928,0.0
1053,0.0
2,1, 1, 1, 0,21, 0.00,60.00,Sunday
69,501943.71157761607
105,0.0
129,0.0
166,0.0
203,0.0
216,501943.71157761607
240,250965.09197172
270,250978.61960589604
696,0.0
928,0.0
1053,0.0
2,1, 1, 1, 0,22, 0.00,60.00,Sunday
69,501943.71157761607
105,0.0
129,0.0
166,0.0
203,0.0
216,501943.71157761607
240,250965.09197172
270,250978.61960589604
696,0.0
928,0.0
1053,0.0
2,1, 1, 1, 0,23, 0.00,60.00,Sunday
69,501943.71157761607
105,0.0
129,0.0
166,0.0
203,0.0
216,501943.71157761607
240,250965.09197172
270,250978.61960589604
696,0.0
928,0.0
1053,0.0
2,1, 1, 1, 0,24, 0.00,60.00,Sunday
69,501943.71157761607
105,0.0
129,0.0
166,0.0
203,0.0
216,501943.71157761607
240,250965.09197172
270,250978.61960589604
696,0.0
928,0.0
1053,0.0
3,1, 1, 1, 0,Sunday
70,12046649.077862794,250971.85578880803, 1,30,250971.85578880803, 1,30
106,0.0,0.0, 1,30,0.0, 1,30
130,0.0,0.0, 1,30,0.0, 1,30
167,0.0,0.0, 1,30,0.0, 1,30
204,0.0,0.0, 1,30,0.0, 1,30
217,12046649.077862794,250971.85578880803, 1,30,250971.85578880803, 1,30
241,6023162.207321275,125482.54598586, 1,30,125482.54598586, 1,30
271,6023486.870541498,125489.30980294802, 1,30,125489.30980294802, 1,30
697,0.0,0.0, 1,30,0.0, 1,30
929,0.0,0.0, 1,30,0.0, 1,30
1054,0.0,0.0, 1,30,0.0, 1,30
2,2, 1, 2, 0, 1, 0.00,60.00,Monday
69,501943.71157761607
105,0.0
129,0.0
166,0.0
203,0.0
216,501943.71157761607
240,250965.09197172
270,250978.61960589604
696,0.0
928,0.0
1053,0.0
2,2, 1, 2, 0, 2, 0.00,60.00,Monday
69,501943.71157761607
105,0.0
129,0.0
166,0.0
203,0.0
216,501943.71157761607
240,250965.09197172
270,250978.61960589604
696,0.0
928,0.0
1053,0.0
2,2, 1, 2, 0, 3, 0.00,60.00,Monday
69,501943.71157761607
105,0.0
129,0.0
166,0.0
203,0.0
216,501943.71157761607
240,250965.09197172
270,250978.61960589604
696,0.0
928,0.0
1053,0.0
2,2, 1, 2, 0, 4, 0.00,60.00,Monday
69,501943.71157761607
105,0.0
129,0.0
166,0.0
203,0.0
216,501943.71157761607
240,250965.09197172
270,250978.61960589604
696,0.0
928,0.0
1053,0.0
2,2, 1, 2, 0, 5, 0.00,60.00,Monday
69,501943.71157761607
105,0.0
129,0.0
166,0.0
203,0.0
216,501943.71157761607
240,250965.09197172
270,250978.61960589604
696,0.0
928,0.0
1053,0.0
2,2, 1, 2, 0, 6, 0.00,60.00,Monday
69,501943.71157761607
105,0.0
129,0.0
166,0.0
203,0.0
216,501943.71157761607
240,250965.09197172
270,250978.61960589604
696,0.0
928,0.0
1053,0.0
2,2, 1, 2, 0, 7, 0.00,60.00,Monday
69,501943.71157761607
105,0.0
129,0.0
166,0.0
203,0.0
216,501943.71157761607
240,250965.09197172
270,250978.61960589604
696,0.0
928,0.0
1053,0.0
2,2, 1, 2, 0, 8, 0.00,60.00,Monday
69,18117329.666399998
105,8811736.2
129,262729.80000000007
166,4274388.0
203,4274618.4
216,9305593.4664
240,4652671.3379999999
270,4652922.1284
696,43063815.807991769
928,0.0
1053,0.0
2,2, 1, 2, 0, 9, 0.00,60.00,Monday
69,18086623.206631349
105,8781029.740231349
129,262729.80000000007
166,4264440.871954172
203,4253859.0682771769
216,9305593.4664
240,4652671.3379999999
270,4652922.1284
696,45932653.493163768
928,0.0
1053,0.0
2,2, 1, 2, 0,10, 0.00,60.00,Monday
69,17976200.421276049
105,8670606.954876047
129,262729.80000000007
166,4234483.5370644549
203,4173393.617811593
216,9305593.4664
240,4652671.3379999999
270,4652922.1284
696,46235958.60080388
928,0.0
1053,0.0
2,2, 1, 2, 0,11, 0.00,60.00,Monday
69,17773754.856747215
105,8468161.390347217
129,262729.80000000007
166,4196390.634586009
203,4009040.9557612065
216,9305593.4664
240,4652671.3379999999
270,4652922.1284
696,46235958.60080383
928,0.0
1053,0.0
2,2, 1, 2, 0,12, 0.00,60.00,Monday
69,17555183.67808474
105,8249590.211684739
129,262729.80000000007
166,4168407.1764372
203,3818453.2352475386
216,9305593.4664
240,4652671.3379999999
270,4652922.1284
696,46235958.60080346
928,0.0
1053,0.0
2,2, 1, 2, 0,13, 0.00,60.00,Monday
69,17462682.697953866
105,8157089.231553868
129,262729.80000000007
166,4159661.435061806
203,3734697.9964920629
216,9305593.4664
240,4652671.3379999999
270,4652922.1284
696,41144649.627470258
928,0.0
1053,0.0
2,2, 1, 2, 0,14, 0.00,60.00,Monday
69,17635221.2131555
105,8329627.746755504
129,262729.80000000007
166,4179838.4422435846
203,3887059.50451192
216,9305593.4664
240,4652671.3379999999
270,4652922.1284
696,35023217.24012078
928,0.0
1053,0.0
2,2, 1, 2, 0,15, 0.00,60.00,Monday
69,17858080.855636114
105,8552487.389236112
129,262729.80000000007
166,4212646.20797961
203,4077111.381256502
216,9305593.4664
240,4652671.3379999999
270,4652922.1284
696,32443162.151390777
928,0.0
1053,0.0
2,2, 1, 2, 0,16, 0.00,60.00,Monday
69,18031502.44213572
105,8725908.975735723
129,262729.80000000007
166,4248799.703254666
203,4214379.472481057
216,9305593.4664
240,4652671.3379999999
270,4652922.1284
696,28382713.245393069
928,0.0
1053,0.0
2,2, 1, 2, 0,17, 0.00,60.00,Monday
69,18108448.43650601
105,8802854.97010601
129,262729.80000000007
166,4271345.224803982
203,4268779.945302028
216,9305593.4664
240,4652671.3379999999
270,4652922.1284
696,24981679.90233244
928,0.0
1053,0.0
2,2, 1, 2, 0,18, 0.00,60.00,Monday
69,18117329.666399998
105,8811736.2
129,262729.80000000007
166,4274388.0
203,4274618.4
216,9305593.4664
240,4652671.3379999999
270,4652922.1284
696,17866444.829374397
928,0.0
1053,0.0
2,2, 1, 2, 0,19, 0.00,60.00,Monday
69,18117329.666399998
105,8811736.2
129,262729.80000000007
166,4274388.0
203,4274618.4
216,9305593.4664
240,4652671.3379999999
270,4652922.1284
696,13453711.139887162
928,0.0
1053,0.0
2,2, 1, 2, 0,20, 0.00,60.00,Monday
69,9305593.4664
105,0.0
129,0.0
166,0.0
203,0.0
216,9305593.4664
240,4652671.3379999999
270,4652922.1284
696,0.0
928,0.0
1053,0.0
2,2, 1, 2, 0,21, 0.00,60.00,Monday
69,501943.71157761607
105,0.0
129,0.0
166,0.0
203,0.0
216,501943.71157761607
240,250965.09197172
270,250978.61960589604
696,0.0
928,0.0
1053,0.0
2,2, 1, 2, 0,22, 0.00,60.00,Monday
69,501943.71157761607
105,0.0
129,0.0
166,0.0
203,0.0
216,501943.71157761607
240,250965.09197172
270,250978.61960589604
696,0.0
928,0.0
1053,0.0
2,2, 1, 2, 0,23, 0.00,60.00,Monday
69,501943.71157761607
105,0.0
129,0.0
166,0.0
203,0.0
216,501943.71157761607
240,250965.09197172
270,250978.61960589604
696,0.0
928,0.0
1053,0.0
2,2, 1, 2, 0,24, 0.00,60.00,Monday
69,501943.71157761607
105,0.0
129,0.0
166,0.0
203,0.0
216,501943.71157761607
240,250965.09197172
270,250978.61960589604
696,0.0
928,0.0
1053,0.0
3,2, 1, 2, 0,Monday
70,229666661.10108034,250971.85578880803, 1,30,9058664.833199999, 8,30
106,103172565.21052653,0.0, 1,30,4405868.1, 8,30
130,3152757.5999999989,0.0, 1,30,131364.90000000003, 8,30
167,50759177.23338549,0.0, 1,30,2137194.0, 8,30
204,49260630.377141099,0.0, 1,30,2137309.2, 8,30
217,126494095.89055379,250971.85578880803, 1,30,4652796.7332, 8,30
241,63245343.405688937,125482.54598586, 1,30,2326335.6689999999, 8,30
271,63248752.484864849,125489.30980294802, 1,30,2326461.0642, 8,30
697,420999923.2395356,0.0, 1,30,23117979.300402229,10,60
929,0.0,0.0, 1,30,0.0, 1,30
1054,0.0,0.0, 1,30,0.0, 1,30
2,3, 1, 3, 0, 1, 0.00,60.00,Tuesday
69,501943.71157761607
105,0.0
129,0.0
166,0.0
203,0.0
216,501943.71157761607
240,250965.09197172
270,250978.61960589604
696,0.0
928,0.0
1053,0.0
2,3, 1, 3, 0, 2, 0.00,60.00,Tuesday
69,501943.71157761607
105,0.0
129,0.0
166,0.0
203,0.0
216,501943.71157761607
240,250965.09197172
270,250978.61960589604
696,0.0
928,0.0
1053,0.0
2,3, 1, 3, 0, 3, 0.00,60.00,Tuesday
69,501943.71157761607
105,0.0
129,0.0
166,0.0
203,0.0
216,501943.71157761607
240,250965.09197172
270,250978.61960589604
696,0.0
928,0.0
1053,0.0
2,3, 1, 3, 0, 4, 0.00,60.00,Tuesday
69,501943.71157761607
105,0.0
129,0.0
166,0.0
203,0.0
216,501943.71157761607
240,250965.09197172
270,250978.61960589604
696,0.0
928,0.0
1053,0.0
2,3, 1, 3, 0, 5, 0.00,60.00,Tuesday
69,501943.71157761607
105,0.0
129,0.0
166,0.0
203,0.0
216,501943.71157761607
240,250965.09197172
270,250978.61960589604
696,0.0
928,0.0
1053,0.0
2,3, 1, 3, 0, 6, 0.00,60.00,Tuesday
69,501943.71157761607
105,0.0
129,0.0
166,0.0
203,0.0
216,501943.71157761607
240,250965.09197172
270,250978.61960589604
696,0.0
928,0.0
1053,0.0
2,3, 1, 3, 0, 7, 0.00,60.00,Tuesday
69,501943.71157761607
105,0.0
129,0.0
166,0.0
203,0.0
216,501943.71157761607
240,250965.09197172
270,250978.61960589604
696,0.0
928,0.0
1053,0.0
2,3, 1, 3, 0, 8, 0.00,60.00,Tuesday
69,18117329.666399998
105,8811736.2
129,262729.80000000007
166,4274388.0
203,4274618.4
216,9305593.4664
240,4652671.3379999999
270,4652922.1284
696,31643747.782570259
928,0.0
1053,0.0
2,3, 1, 3, 0, 9, 0.00,60.00,Tuesday
69,18085770.659423867
105,8780177.193023866
129,262729.80000000007
166,4264201.570138625
203,4253245.822885241
216,9305593.4664
240,4652671.3379999999
270,4652922.1284
696,27368746.180488968
928,0.0
1053,0.0
2,3, 1, 3, 0,10, 0.00,60.00,Tuesday
69,17987641.491980778
105,8682048.02558078
129,262729.80000000007
166,4236787.0946998749
203,4182531.1308809069
216,9305593.4664
240,4652671.3379999999
270,4652922.1284
696,27163937.484023505
928,0.0
1053,0.0
2,3, 1, 3, 0,11, 0.00,60.00,Tuesday
69,17866616.69988624
105,8561023.233486243
129,262729.80000000007
166,4211311.482616668
203,4086981.9508695758
216,9305593.4664
240,4652671.3379999999
270,4652922.1284
696,23119029.268878595
928,0.0
1053,0.0
2,3, 1, 3, 0,12, 0.00,60.00,Tuesday
69,17775966.781214365
105,8470373.314814369
129,262729.80000000007
166,4196600.177460682
203,4011043.3373536879
216,9305593.4664
240,4652671.3379999999
270,4652922.1284
696,19842205.272684818
928,0.0
1053,0.0
2,3, 1, 3, 0,13, 0.00,60.00,Tuesday
69,17723879.96642732
105,8418286.500027318
129,262729.80000000007
166,4189869.418298597
203,3965687.2817287209
216,9305593.4664
240,4652671.3379999999
270,4652922.1284
696,14619758.275972497
928,0.0
1053,0.0
2,3, 1, 3, 0,14, 0.00,60.00,Tuesday
69,17684624.193194294
105,8379030.726794297
129,262729.80000000007
166,4185614.754713735
203,3930686.172080562
216,9305593.4664
240,4652671.3379999999
270,4652922.1284
696,12689892.540707946
928,0.0
1053,0.0
2,3, 1, 3, 0,15, 0.00,60.00,Tuesday
69,17775764.00709126
105,8470170.540691266
129,262729.80000000007
166,4199489.523300942
203,4007951.217390324
216,9305593.4664
240,4652671.3379999999
270,4652922.1284
696,13395663.620651724
928,0.0
1053,0.0
2,3, 1, 3, 0,16, 0.00,60.00,Tuesday
69,17957502.119569549
105,8651908.653169549
129,262729.80000000007
166,4233016.025626184
203,4156162.827543365
216,9305593.4664
240,4652671.3379999999
270,4652922.1284
696,11755499.603584186
928,0.0
1053,0.0
2,3, 1, 3, 0,17, 0.00,60.00,Tuesday
69,18103646.216310659
105,8798052.749910662
129,262729.80000000007
166,4269916.8184013669
203,4265406.131509296
216,9305593.4664
240,4652671.3379999999
270,4652922.1284
696,11335021.061402306
928,0.0
1053,0.0
2,3, 1, 3, 0,18, 0.00,60.00,Tuesday
69,18117329.666399998
105,8811736.2
129,262729.80000000007
166,4274388.0
203,4274618.4
216,9305593.4664
240,4652671.3379999999
270,4652922.1284
696,5623661.765357582
928,0.0
1053,0.0
2,3, 1, 3, 0,19, 0.00,60.00,Tuesday
69,18117329.666399998
105,8811736.2
129,262729.80000000007
166,4274388.0
203,4274618.4
216,9305593.4664
240,4652671.3379999999
270,4652922.1284
696,2377981.3319776167
928,0.0
1053,0.0
2,3, 1, 3, 0,20, 0.00,60.00,Tuesday
69,9305593.4664
105,0.0
129,0.0
166,0.0
203,0.0
216,9305593.4664
240,4652671.3379999999
270,4652922.1284
696,0.0
928,0.0
1053,0.0
2,3, 1, 3, 0,21, 0.00,60.00,Tuesday
69,501943.71157761607
105,0.0
129,0.0
166,0.0
203,0.0
216,501943.71157761607
240,250965.09197172
270,250978.61960589604
696,0.0
928,0.0
1053,0.0
2,3, 1, 3, 0,22, 0.00,60.00,Tuesday
69,501943.71157761607
105,0.0
129,0.0
166,0.0
203,0.0
216,501943.71157761607
240,250965.09197172
270,250978.61960589604
696,0.0
928,0.0
1053,0.0
2,3, 1, 3, 0,23, 0.00,60.00,Tuesday
69,501943.71157761607
105,0.0
129,0.0
166,0.0
203,0.0
216,501943.71157761607
240,250965.09197172
270,250978.61960589604
696,0.0
928,0.0
1053,0.0
2,3, 1, 3, 0,24, 0.00,60.00,Tuesday
69,501943.71157761607
105,0.0
129,0.0
166,0.0
203,0.0
216,501943.71157761607
240,250965.09197172
270,250978.61960589604
696,0.0
928,0.0
1053,0.0
3,3, 1, 3, 0,Tuesday
70,230140375.4280521,250971.85578880803, 1,30,9058664.833199999, 8,30
106,103646279.53749833,0.0, 1,30,4405868.1, 8,30
130,3152757.5999999989,0.0, 1,30,131364.90000000003, 8,30
167,50809970.865256678,0.0, 1,30,2137194.0, 8,30
204,49683551.072241697,0.0, 1,30,2137309.2, 8,30
217,126494095.89055379,250971.85578880803, 1,30,4652796.7332, 8,30
241,63245343.405688937,125482.54598586, 1,30,2326335.6689999999, 8,30
271,63248752.484864849,125489.30980294802, 1,30,2326461.0642, 8,30
697,200935144.18829993,0.0, 1,30,16082382.23455045, 8,60
929,0.0,0.0, 1,30,0.0, 1,30
1054,0.0,0.0, 1,30,0.0, 1,30
2,4, 1, 4, 0, 1, 0.00,60.00,Wednesday
69,501943.71157761607
105,0.0
129,0.0
166,0.0
203,0.0
216,501943.71157761607
240,250965.09197172
270,250978.61960589604
696,0.0
928,0.0
1053,0.0
2,4, 1, 4, 0, 2, 0.00,60.00,Wednesday
69,501943.71157761607
105,0.0
129,0.0
166,0.0
203,0.0
216,501943.71157761607
240,250965.09197172
270,250978.61960589604
696,0.0
928,0.0
1053,0.0
2,4, 1, 4, 0, 3, 0.00,60.00,Wednesday
69,501943.71157761607
105,0.0
129,0.0
166,0.0
203,0.0
216,501943.71157761607
240,250965.09197172
270,250978.61960589604
696,0.0
928,0.0
1053,0.0
2,4, 1, 4, 0, 4, 0.00,60.00,Wednesday
69,501943.71157761607
105,0.0
129,0.0
166,0.0
203,0.0
216,501943.71157761607
240,250965.09197172
270,250978.61960589604
696,0.0
928,0.0
1053,0.0
2,4, 1, 4, 0, 5, 0.00,60.00,Wednesday
69,501943.71157761607
105,0.0
129,0.0
166,0.0
203,0.0
216,501943.71157761607
240,250965.09197172
270,250978.61960589604
696,0.0
928,0.0
1053,0.0
2,4, 1, 4, 0, 6, 0.00,60.00,Wednesday
69,501943.71157761607
105,0.0
129,0.0
166,0.0
203,0.0
216,501943.71157761607
240,250965.09197172
270,250978.61960589604
696,0.0
928,0.0
1053,0.0
2,4, 1, 4, 0, 7, 0.00,60.00,Wednesday
69,501943.71157761607
105,0.0
129,0.0
166,0.0
203,0.0
216,501943.71157761607
240,250965.09197172
270,250978.61960589604
696,0.0
928,0.0
1053,0.0
2,4, 1, 4, 0, 8, 0.00,60.00,Wednesday
69,18117329.666399998
105,8811736.2
129,262729.80000000007
166,4274388.0
203,4274618.4
216,9305593.4664
240,4652671.3379999999
270,4652922.1284
696,18478112.728609049
928,0.0
1053,0.0
2,4, 1, 4, 0, 9, 0.00,60.00,Wednesday
69,18002386.510220939
105,8696793.04382094
129,262729.80000000007
166,4247818.935004143
203,4186244.3088167968
216,9305593.4664
240,4652671.3379999999
270,4652922.1284
696,15503522.588343794
928,0.0
1053,0.0
2,4, 1, 4, 0,10, 0.00,60.00,Wednesday
69,17629309.395912596
105,8323715.9295125999
129,262729.80000000007
166,4183243.500288304
203,3877742.6292242968
216,9305593.4664
240,4652671.3379999999
270,4652922.1284
696,18027374.452565988
928,0.0
1053,0.0
2,4, 1, 4, 0,11, 0.00,60.00,Wednesday
69,17467959.803366856
105,8162366.336966857
129,262729.80000000007
166,4160685.442594397
203,3738951.0943724608
216,9305593.4664
240,4652671.3379999999
270,4652922.1284
696,15964895.313685343
928,0.0
1053,0.0
2,4, 1, 4, 0,12, 0.00,60.00,Wednesday
69,17532000.161854
105,8226406.695454002
129,262729.80000000007
166,4164428.391445319
203,3799248.504008683
216,9305593.4664
240,4652671.3379999999
270,4652922.1284
696,14329011.137423166
928,0.0
1053,0.0
2,4, 1, 4, 0,13, 0.00,60.00,Wednesday
69,17695315.683776395
105,8389722.217376396
129,262729.80000000007
166,4186099.161289485
203,3940893.2560869108
216,9305593.4664
240,4652671.3379999999
270,4652922.1284
696,10192635.016982362
928,0.0
1053,0.0
2,4, 1, 4, 0,14, 0.00,60.00,Wednesday
69,17573537.101687619
105,8267943.635287616
129,262729.80000000007
166,4171836.589895102
203,3833377.2453925146
216,9305593.4664
240,4652671.3379999999
270,4652922.1284
696,9247659.338107285
928,0.0
1053,0.0
2,4, 1, 4, 0,15, 0.00,60.00,Wednesday
69,17654010.26757073
105,8348416.801170731
129,262729.80000000007
166,4182274.6054895387
203,3903412.395681192
216,9305593.4664
240,4652671.3379999999
270,4652922.1284
696,10957679.534329709
928,0.0
1053,0.0
2,4, 1, 4, 0,16, 0.00,60.00,Wednesday
69,17892465.557877248
105,8586872.091477249
129,262729.80000000007
166,4220857.810890587
203,4103284.480586662
216,9305593.4664
240,4652671.3379999999
270,4652922.1284
696,10027381.605613051
928,0.0
1053,0.0
2,4, 1, 4, 0,17, 0.00,60.00,Wednesday
69,18098576.29376868
105,8792982.827368685
129,262729.80000000007
166,4268501.198348487
203,4261751.829020198
216,9305593.4664
240,4652671.3379999999
270,4652922.1284
696,9830288.264946174
928,0.0
1053,0.0
2,4, 1, 4, 0,18, 0.00,60.00,Wednesday
69,18117329.666399998
105,8811736.2
129,262729.80000000007
166,4274388.0
203,4274618.4
216,9305593.4664
240,4652671.3379999999
270,4652922.1284
696,4401683.017827468
928,0.0
1053,0.0
2,4, 1, 4, 0,19, 0.00,60.00,Wednesday
69,18117329.666399998
105,8811736.2
129,262729.80000000007
166,4274388.0
203,4274618.4
216,9305593.4664
240,4652671.3379999999
270,4652922.1284
696,1624004.982928848
928,0.0
1053,0.0
2,4, 1, 4, 0,20, 0.00,60.00,Wednesday
69,9305593.4664
105,0.0
129,0.0
166,0.0
203,0.0
216,9305593.4664
240,4652671.3379999999
270,4652922.1284
696,0.0
928,0.0
1053,0.0
2,4, 1, 4, 0,21, 0.00,60.00,Wednesday
69,501943.71157761607
105,0.0
129,0.0
166,0.0
203,0.0
216,501943.71157761607
240,250965.09197172
270,250978.61960589604
696,0.0
928,0.0
1053,0.0
2,4, 1, 4, 0,22, 0.00,60.00,Wednesday
69,501943.71157761607
105,0.0
129,0.0
166,0.0
203,0.0
216,501943.71157761607
240,250965.09197172
270,250978.61960589604
696,0.0
928,0.0
1053,0.0
2,4, 1, 4, 0,23, 0.00,60.00,Wednesday
69,501943.71157761607
105,0.0
129,0.0
166,0.0
203,0.0
216,501943.71157761607
240,250965.09197172
270,250978.61960589604
696,0.0
928,0.0
1053,0.0
2,4, 1, 4, 0,24, 0.00,60.00,Wednesday
69,501943.71157761607
105,0.0
129,0.0
166,0.0
203,0.0
216,501943.71157761607
240,250965.09197172
270,250978.61960589604
696,0.0
928,0.0
1053,0.0
3,4, 1, 4, 0,Wednesday
70,228724524.06898884,250971.85578880803, 1,30,9058664.833199999, 8,30
106,102230428.17843504,0.0, 1,30,4405868.1, 8,30
130,3152757.5999999989,0.0, 1,30,131364.90000000003, 8,30
167,50608909.63524536,0.0, 1,30,2137194.0, 8,30
204,48468760.943189729,0.0, 1,30,2137309.2, 8,30
217,126494095.89055379,250971.85578880803, 1,30,4652796.7332, 8,30
241,63245343.405688937,125482.54598586, 1,30,2326335.6689999999, 8,30
271,63248752.484864849,125489.30980294802, 1,30,2326461.0642, 8,30
697,138584247.98136223,0.0, 1,30,10183386.69075813, 8,30
929,0.0,0.0, 1,30,0.0, 1,30
1054,0.0,0.0, 1,30,0.0, 1,30
2,5, 1, 5, 0, 1, 0.00,60.00,Thursday
69,501943.71157761607
105,0.0
129,0.0
166,0.0
203,0.0
216,501943.71157761607
240,250965.09197172
270,250978.61960589604
696,0.0
928,0.0
1053,0.0
2,5, 1, 5, 0, 2, 0.00,60.00,Thursday
69,501943.71157761607
105,0.0
129,0.0
166,0.0
203,0.0
216,501943.71157761607
240,250965.09197172
270,250978.61960589604
696,0.0
928,0.0
1053,0.0
2,5, 1, 5, 0, 3, 0.00,60.00,Thursday
69,501943.71157761607
105,0.0
129,0.0
166,0.0
203,0.0
216,501943.71157761607
240,250965.09197172
270,250978.61960589604
696,0.0
928,0.0
1053,0.0
2,5, 1, 5, 0, 4, 0.00,60.00,Thursday
69,501943.71157761607
105,0.0
129,0.0
166,0.0
203,0.0
216,501943.71157761607
240,250965.09197172
270,250978.61960589604
696,0.0
928,0.0
1053,0.0
2,5, 1, 5, 0, 5, 0.00,60.00,Thursday
69,501943.71157761607
105,0.0
129,0.0
166,0.0
203,0.0
216,501943.71157761607
240,250965.09197172
270,250978.61960589604
696,0.0
928,0.0
1053,0.0
2,5, 1, 5, 0, 6, 0.00,60.00,Thursday
69,501943.71157761607
105,0.0
129,0.0
166,0.0
203,0.0
216,501943.71157761607
240,250965.09197172
270,250978.61960589604
696,0.0
928,0.0
1053,0.0
2,5, 1, 5, 0, 7, 0.00,60.00,Thursday
69,501943.71157761607
105,0.0
129,0.0
166,0.0
203,0.0
216,501943.71157761607
240,250965.09197172
270,250978.61960589604
696,0.0
928,0.0
1053,0.0
2,5, 1, 5, 0, 8, 0.00,60.00,Thursday
69,18117329.666399998
105,8811736.2
129,262729.80000000007
166,4274388.0
203,4274618.4
216,9305593.4664
240,4652671.3379999999
270,4652922.1284
696,21665674.44841367
928,0.0
1053,0.0
2,5, 1, 5, 0, 9, 0.00,60.00,Thursday
69,18000566.832855423
105,8694973.366455425
129,262729.80000000007
166,4247387.492996249
203,4184856.0734591747
216,9305593.4664
240,4652671.3379999999
270,4652922.1284
696,17928789.05642435
928,0.0
1053,0.0
2,5, 1, 5, 0,10, 0.00,60.00,Thursday
69,17583121.182915618
105,8277527.716515619
129,262729.80000000007
166,4177977.723622388
203,3836820.1928932315
216,9305593.4664
240,4652671.3379999999
270,4652922.1284
696,19445501.67117728
928,0.0
1053,0.0
2,5, 1, 5, 0,11, 0.00,60.00,Thursday
69,17091014.62393441
105,7785421.157534413
129,262729.80000000007
166,4128155.138456211
203,3394536.2190782015
216,9305593.4664
240,4652671.3379999999
270,4652922.1284
696,16029176.017443493
928,0.0
1053,0.0
2,5, 1, 5, 0,12, 0.00,60.00,Thursday
69,16719429.419017278
105,7413835.95261728
129,262729.80000000007
166,4102614.9503277915
203,3048491.202289488
216,9305593.4664
240,4652671.3379999999
270,4652922.1284
696,13320900.869082019
928,0.0
1053,0.0
2,5, 1, 5, 0,13, 0.00,60.00,Thursday
69,16605310.347664152
105,7299716.88126415
129,262729.80000000007
166,4098804.230561261
203,2938182.8507028885
216,9305593.4664
240,4652671.3379999999
270,4652922.1284
696,8429628.944148569
928,0.0
1053,0.0
2,5, 1, 5, 0,14, 0.00,60.00,Thursday
69,16826411.180280735
105,7520817.713880736
129,262729.80000000007
166,4119232.6580709835
203,3138855.2558097525
216,9305593.4664
240,4652671.3379999999
270,4652922.1284
696,7338654.331918984
928,0.0
1053,0.0
2,5, 1, 5, 0,15, 0.00,60.00,Thursday
69,17304017.932491874
105,7998424.466091874