Program Version,EnergyPlus, Version 9.0.1-bb7ca4f0da, YMD=2020.04.21 16:07
1,5,Environment Title[],Latitude[deg],Longitude[deg],Time Zone[],Elevation[m]
2,8,Day of Simulation[],Month[],Day of Month[],DST Indicator[1=yes 0=no],Hour[],StartMinute[],EndMinute[],DayType
3,5,Cumulative Day of Simulation[],Month[],Day of Month[],DST Indicator[1=yes 0=no],DayType  ! When Daily Meters Requested
4,2,Cumulative Days of Simulation[],Month[]  ! When Monthly Meters Requested
5,1,Cumulative Days of Simulation[] ! When Run Period Meters Requested
6,1,Calendar Year of Simulation[] ! When Annual Meters Requested
69,1,Electricity:Facility [J] !Hourly
216,1,InteriorEquipment:Electricity [J] !Hourly
105,1,InteriorLights:Electricity [J] !Hourly
70,7,Electricity:Facility [J] !Daily [Value,Min,Hour,Minute,Max,Hour,Minute]
217,7,InteriorEquipment:Electricity [J] !Daily [Value,Min,Hour,Minute,Max,Hour,Minute]
106,7,InteriorLights:Electricity [J] !Daily [Value,Min,Hour,Minute,Max,Hour,Minute]
71,9,Electricity:Facility [J] !Monthly [Value,Min,Day,Hour,Minute,Max,Day,Hour,Minute]
218,9,InteriorEquipment:Electricity [J] !Monthly [Value,Min,Day,Hour,Minute,Max,Day,Hour,Minute]
107,9,InteriorLights:Electricity [J] !Monthly [Value,Min,Day,Hour,Minute,Max,Day,Hour,Minute]
73,11,Electricity:Facility [J] !RunPeriod [Value,Min,Month,Day,Hour,Minute,Max,Month,Day,Hour,Minute]
220,11,InteriorEquipment:Electricity [J] !RunPeriod [Value,Min,Month,Day,Hour,Minute,Max,Month,Day,Hour,Minute]
109,11,InteriorLights:Electricity [J] !RunPeriod [Value,Min,Month,Day,Hour,Minute,Max,Month,Day,Hour,Minute]
129,1,ELECTRIC EQUIPMENT#Blocco1:Corridoio#GeneralLights:InteriorLights:Electricity [J] !Hourly
240,1,ELECTRIC EQUIPMENT#Blocco1:Room407#05:InteriorEquipment:Electricity [J] !Hourly
166,1,ELECTRIC EQUIPMENT#Blocco1:Room407#GeneralLights:InteriorLights:Electricity [J] !Hourly
270,1,ELECTRIC EQUIPMENT#Blocco1:Room408#05:InteriorEquipment:Electricity [J] !Hourly
203,1,ELECTRIC EQUIPMENT#Blocco1:Room408#GeneralLights:InteriorLights:Electricity [J] !Hourly
130,7,ELECTRIC EQUIPMENT#Blocco1:Corridoio#GeneralLights:InteriorLights:Electricity [J] !Daily [Value,Min,Hour,Minute,Max,Hour,Minute]
241,7,ELECTRIC EQUIPMENT#Blocco1:Room407#05:InteriorEquipment:Electricity [J] !Daily [Value,Min,Hour,Minute,Max,Hour,Minute]
167,7,ELECTRIC EQUIPMENT#Blocco1:Room407#GeneralLights:InteriorLights:Electricity [J] !Daily [Value,Min,Hour,Minute,Max,Hour,Minute]
271,7,ELECTRIC EQUIPMENT#Blocco1:Room408#05:InteriorEquipment:Electricity [J] !Daily [Value,Min,Hour,Minute,Max,Hour,Minute]
204,7,ELECTRIC EQUIPMENT#Blocco1:Room408#GeneralLights:InteriorLights:Electricity [J] !Daily [Value,Min,Hour,Minute,Max,Hour,Minute]
131,9,ELECTRIC EQUIPMENT#Blocco1:Corridoio#GeneralLights:InteriorLights:Electricity [J] !Monthly [Value,Min,Day,Hour,Minute,Max,Day,Hour,Minute]
242,9,ELECTRIC EQUIPMENT#Blocco1:Room407#05:InteriorEquipment:Electricity [J] !Monthly [Value,Min,Day,Hour,Minute,Max,Day,Hour,Minute]
168,9,ELECTRIC EQUIPMENT#Blocco1:Room407#GeneralLights:InteriorLights:Electricity [J] !Monthly [Value,Min,Day,Hour,Minute,Max,Day,Hour,Minute]
272,9,ELECTRIC EQUIPMENT#Blocco1:Room408#05:InteriorEquipment:Electricity [J] !Monthly [Value,Min,Day,Hour,Minute,Max,Day,Hour,Minute]
205,9,ELECTRIC EQUIPMENT#Blocco1:Room408#GeneralLights:InteriorLights:Electricity [J] !Monthly [Value,Min,Day,Hour,Minute,Max,Day,Hour,Minute]
133,11,ELECTRIC EQUIPMENT#Blocco1:Corridoio#GeneralLights:InteriorLights:Electricity [J] !RunPeriod [Value,Min,Month,Day,Hour,Minute,Max,Month,Day,Hour,Minute]
244,11,ELECTRIC EQUIPMENT#Blocco1:Room407#05:InteriorEquipment:Electricity [J] !RunPeriod [Value,Min,Month,Day,Hour,Minute,Max,Month,Day,Hour,Minute]
170,11,ELECTRIC EQUIPMENT#Blocco1:Room407#GeneralLights:InteriorLights:Electricity [J] !RunPeriod [Value,Min,Month,Day,Hour,Minute,Max,Month,Day,Hour,Minute]
274,11,ELECTRIC EQUIPMENT#Blocco1:Room408#05:InteriorEquipment:Electricity [J] !RunPeriod [Value,Min,Month,Day,Hour,Minute,Max,Month,Day,Hour,Minute]
207,11,ELECTRIC EQUIPMENT#Blocco1:Room408#GeneralLights:InteriorLights:Electricity [J] !RunPeriod [Value,Min,Month,Day,Hour,Minute,Max,Month,Day,Hour,Minute]
776,1,DistrictHeating:Facility [J] !Hourly
1008,1,DistrictCooling:Facility [J] !Hourly
1133,1,Carbon Equivalent:Facility [kg] !Hourly
1009,7,DistrictCooling:Facility [J] !Daily [Value,Min,Hour,Minute,Max,Hour,Minute]
777,7,DistrictHeating:Facility [J] !Daily [Value,Min,Hour,Minute,Max,Hour,Minute]
1134,7,Carbon Equivalent:Facility [kg] !Daily [Value,Min,Hour,Minute,Max,Hour,Minute]
1010,9,DistrictCooling:Facility [J] !Monthly [Value,Min,Day,Hour,Minute,Max,Day,Hour,Minute]
778,9,DistrictHeating:Facility [J] !Monthly [Value,Min,Day,Hour,Minute,Max,Day,Hour,Minute]
1135,9,Carbon Equivalent:Facility [kg] !Monthly [Value,Min,Day,Hour,Minute,Max,Day,Hour,Minute]
1012,11,DistrictCooling:Facility [J] !RunPeriod [Value,Min,Month,Day,Hour,Minute,Max,Month,Day,Hour,Minute]
780,11,DistrictHeating:Facility [J] !RunPeriod [Value,Min,Month,Day,Hour,Minute,Max,Month,Day,Hour,Minute]
1137,11,Carbon Equivalent:Facility [kg] !RunPeriod [Value,Min,Month,Day,Hour,Minute,Max,Month,Day,Hour,Minute]
End of Data Dictionary
1,BUILDLAB (01-01:31-12),  45.22,   7.65,   1.00, 287.00
2,1, 1, 1, 0, 1, 0.00,60.00,Sunday
69,501943.71157761607
105,0.0
129,0.0
166,0.0
203,0.0
216,501943.71157761607
240,250965.09197172
270,250978.61960589604
776,0.0
1008,0.0
1133,0.0
2,1, 1, 1, 0, 2, 0.00,60.00,Sunday
69,501943.71157761607
105,0.0
129,0.0
166,0.0
203,0.0
216,501943.71157761607
240,250965.09197172
270,250978.61960589604
776,0.0
1008,0.0
1133,0.0
2,1, 1, 1, 0, 3, 0.00,60.00,Sunday
69,501943.71157761607
105,0.0
129,0.0
166,0.0
203,0.0
216,501943.71157761607
240,250965.09197172
270,250978.61960589604
776,0.0
1008,0.0
1133,0.0
2,1, 1, 1, 0, 4, 0.00,60.00,Sunday
69,501943.71157761607
105,0.0
129,0.0
166,0.0
203,0.0
216,501943.71157761607
240,250965.09197172
270,250978.61960589604
776,0.0
1008,0.0
1133,0.0
2,1, 1, 1, 0, 5, 0.00,60.00,Sunday
69,501943.71157761607
105,0.0
129,0.0
166,0.0
203,0.0
216,501943.71157761607
240,250965.09197172
270,250978.61960589604
776,0.0
1008,0.0
1133,0.0
2,1, 1, 1, 0, 6, 0.00,60.00,Sunday
69,501943.71157761607
105,0.0
129,0.0
166,0.0
203,0.0
216,501943.71157761607
240,250965.09197172
270,250978.61960589604
776,0.0
1008,0.0
1133,0.0
2,1, 1, 1, 0, 7, 0.00,60.00,Sunday
69,501943.71157761607
105,0.0
129,0.0
166,0.0
203,0.0
216,501943.71157761607
240,250965.09197172
270,250978.61960589604
776,0.0
1008,0.0
1133,0.0
2,1, 1, 1, 0, 8, 0.00,60.00,Sunday
69,501943.71157761607
105,0.0
129,0.0
166,0.0
203,0.0
216,501943.71157761607
240,250965.09197172
270,250978.61960589604
776,0.0
1008,0.0
1133,0.0
2,1, 1, 1, 0, 9, 0.00,60.00,Sunday
69,501943.71157761607
105,0.0
129,0.0
166,0.0
203,0.0
216,501943.71157761607
240,250965.09197172
270,250978.61960589604
776,0.0
1008,0.0
1133,0.0
2,1, 1, 1, 0,10, 0.00,60.00,Sunday
69,501943.71157761607
105,0.0
129,0.0
166,0.0
203,0.0
216,501943.71157761607
240,250965.09197172
270,250978.61960589604
776,0.0
1008,0.0
1133,0.0
2,1, 1, 1, 0,11, 0.00,60.00,Sunday
69,501943.71157761607
105,0.0
129,0.0
166,0.0
203,0.0
216,501943.71157761607
240,250965.09197172
270,250978.61960589604
776,0.0
1008,0.0
1133,0.0
2,1, 1, 1, 0,12, 0.00,60.00,Sunday
69,501943.71157761607
105,0.0
129,0.0
166,0.0
203,0.0
216,501943.71157761607
240,250965.09197172
270,250978.61960589604
776,0.0
1008,0.0
1133,0.0
2,1, 1, 1, 0,13, 0.00,60.00,Sunday
69,501943.71157761607
105,0.0
129,0.0
166,0.0
203,0.0
216,501943.71157761607
240,250965.09197172
270,250978.61960589604
776,0.0
1008,0.0
1133,0.0
2,1, 1, 1, 0,14, 0.00,60.00,Sunday
69,501943.71157761607
105,0.0
129,0.0
166,0.0
203,0.0
216,501943.71157761607
240,250965.09197172
270,250978.61960589604
776,0.0
1008,0.0
1133,0.0
2,1, 1, 1, 0,15, 0.00,60.00,Sunday
69,501943.71157761607
105,0.0
129,0.0
166,0.0
203,0.0
216,501943.71157761607
240,250965.09197172
270,250978.61960589604
776,0.0
1008,0.0
1133,0.0
2,1, 1, 1, 0,16, 0.00,60.00,Sunday
69,501943.71157761607
105,0.0
129,0.0
166,0.0
203,0.0
216,501943.71157761607
240,250965.09197172
270,250978.61960589604
776,0.0
1008,0.0
1133,0.0
2,1, 1, 1, 0,17, 0.00,60.00,Sunday
69,501943.71157761607
105,0.0
129,0.0
166,0.0
203,0.0
216,501943.71157761607
240,250965.09197172
270,250978.61960589604
776,0.0
1008,0.0
1133,0.0
2,1, 1, 1, 0,18, 0.00,60.00,Sunday
69,501943.71157761607
105,0.0
129,0.0
166,0.0
203,0.0
216,501943.71157761607
240,250965.09197172
270,250978.61960589604
776,0.0
1008,0.0
1133,0.0
2,1, 1, 1, 0,19, 0.00,60.00,Sunday
69,501943.71157761607
105,0.0
129,0.0
166,0.0
203,0.0
216,501943.71157761607
240,250965.09197172
270,250978.61960589604
776,0.0
1008,0.0
1133,0.0
2,1, 1, 1, 0,20, 0.00,60.00,Sunday
69,501943.71157761607
105,0.0
129,0.0
166,0.0
203,0.0
216,501943.71157761607
240,250965.09197172
270,250978.61960589604
776,0.0
1008,0.0
1133,0.0
2,1, 1, 1, 0,21, 0.00,60.00,Sunday
69,501943.71157761607
105,0.0
129,0.0
166,0.0
203,0.0
216,501943.71157761607
240,250965.09197172
270,250978.61960589604
776,0.0
1008,0.0
1133,0.0
2,1, 1, 1, 0,22, 0.00,60.00,Sunday
69,501943.71157761607
105,0.0
129,0.0
166,0.0
203,0.0
216,501943.71157761607
240,250965.09197172
270,250978.61960589604
776,0.0
1008,0.0
1133,0.0
2,1, 1, 1, 0,23, 0.00,60.00,Sunday
69,501943.71157761607
105,0.0
129,0.0
166,0.0
203,0.0
216,501943.71157761607
240,250965.09197172
270,250978.61960589604
776,0.0
1008,0.0
1133,0.0
2,1, 1, 1, 0,24, 0.00,60.00,Sunday
69,501943.71157761607
105,0.0
129,0.0
166,0.0
203,0.0
216,501943.71157761607
240,250965.09197172
270,250978.61960589604
776,0.0
1008,0.0
1133,0.0
3,1, 1, 1, 0,Sunday
70,12046649.077862794,250971.85578880803, 1,30,250971.85578880803, 1,30
106,0.0,0.0, 1,30,0.0, 1,30
130,0.0,0.0, 1,30,0.0, 1,30
167,0.0,0.0, 1,30,0.0, 1,30
204,0.0,0.0, 1,30,0.0, 1,30
217,12046649.077862794,250971.85578880803, 1,30,250971.85578880803, 1,30
241,6023162.207321275,125482.54598586, 1,30,125482.54598586, 1,30
271,6023486.870541498,125489.30980294802, 1,30,125489.30980294802, 1,30
777,0.0,0.0, 1,30,0.0, 1,30
1009,0.0,0.0, 1,30,0.0, 1,30
1134,0.0,0.0, 1,30,0.0, 1,30
2,2, 1, 2, 0, 1, 0.00,60.00,Monday
69,501943.71157761607
105,0.0
129,0.0
166,0.0
203,0.0
216,501943.71157761607
240,250965.09197172
270,250978.61960589604
776,0.0
1008,0.0
1133,0.0
2,2, 1, 2, 0, 2, 0.00,60.00,Monday
69,501943.71157761607
105,0.0
129,0.0
166,0.0
203,0.0
216,501943.71157761607
240,250965.09197172
270,250978.61960589604
776,0.0
1008,0.0
1133,0.0
2,2, 1, 2, 0, 3, 0.00,60.00,Monday
69,501943.71157761607
105,0.0
129,0.0
166,0.0
203,0.0
216,501943.71157761607
240,250965.09197172
270,250978.61960589604
776,0.0
1008,0.0
1133,0.0
2,2, 1, 2, 0, 4, 0.00,60.00,Monday
69,501943.71157761607
105,0.0
129,0.0
166,0.0
203,0.0
216,501943.71157761607
240,250965.09197172
270,250978.61960589604
776,0.0
1008,0.0
1133,0.0
2,2, 1, 2, 0, 5, 0.00,60.00,Monday
69,501943.71157761607
105,0.0
129,0.0
166,0.0
203,0.0
216,501943.71157761607
240,250965.09197172
270,250978.61960589604
776,0.0
1008,0.0
1133,0.0
2,2, 1, 2, 0, 6, 0.00,60.00,Monday
69,501943.71157761607
105,0.0
129,0.0
166,0.0
203,0.0
216,501943.71157761607
240,250965.09197172
270,250978.61960589604
776,0.0
1008,0.0
1133,0.0
2,2, 1, 2, 0, 7, 0.00,60.00,Monday
69,501943.71157761607
105,0.0
129,0.0
166,0.0
203,0.0
216,501943.71157761607
240,250965.09197172
270,250978.61960589604
776,0.0
1008,0.0
1133,0.0
2,2, 1, 2, 0, 8, 0.00,60.00,Monday
69,18117329.666399998
105,8811736.2
129,262729.80000000007
166,4274388.0
203,4274618.4
216,9305593.4664
240,4652671.3379999999
270,4652922.1284
776,40283834.42289365
1008,0.0
1133,0.0
2,2, 1, 2, 0, 9, 0.00,60.00,Monday
69,18112364.793215854
105,8806771.326815855
129,262729.80000000007
166,4272779.666032453
203,4271261.860783402
216,9305593.4664
240,4652671.3379999999
270,4652922.1284
776,41361358.77059125
1008,0.0
1133,0.0
2,2, 1, 2, 0,10, 0.00,60.00,Monday
69,18094510.728669067
105,8788917.262269069
129,262729.80000000007
166,4267935.916252788
203,4258251.546016281
216,9305593.4664
240,4652671.3379999999
270,4652922.1284
776,41664663.878230858
1008,0.0
1133,0.0
2,2, 1, 2, 0,11, 0.00,60.00,Monday
69,18061777.66503635
105,8756184.198636352
129,262729.80000000007
166,4261776.740589596
203,4231677.658046756
216,9305593.4664
240,4652671.3379999999
270,4652922.1284
776,41664663.87823083
1008,0.0
1133,0.0
2,2, 1, 2, 0,12, 0.00,60.00,Monday
69,18026437.28033149
105,8720843.813931492
129,262729.80000000007
166,4257252.143533764
203,4200861.870397727
216,9305593.4664
240,4652671.3379999999
270,4652922.1284
776,41664663.87823099
1008,0.0
1133,0.0
2,2, 1, 2, 0,13, 0.00,60.00,Monday
69,18011480.961749726
105,8705887.49534973
129,262729.80000000007
166,4255838.059703676
203,4187319.6356460538
216,9305593.4664
240,4652671.3379999999
270,4652922.1284
776,41466358.07575912
1008,0.0
1133,0.0
2,2, 1, 2, 0,14, 0.00,60.00,Monday
69,18039378.40694206
105,8733784.94054206
129,262729.80000000007
166,4259100.445174575
203,4211954.695367485
216,9305593.4664
240,4652671.3379999999
270,4652922.1284
776,37036652.034042749
1008,0.0
1133,0.0
2,2, 1, 2, 0,15, 0.00,60.00,Monday
69,18075412.185994559
105,8769818.719594559
129,262729.80000000007
166,4264405.076198671
203,4242683.843395889
216,9305593.4664
240,4652671.3379999999
270,4652922.1284
776,33734541.46448904
1008,0.0
1133,0.0
2,2, 1, 2, 0,16, 0.00,60.00,Monday
69,18103452.41440949
105,8797858.94800949
129,262729.80000000007
166,4270250.672458064
203,4264878.475551426
216,9305593.4664
240,4652671.3379999999
270,4652922.1284
776,29590027.262449296
1008,0.0
1133,0.0
2,2, 1, 2, 0,17, 0.00,60.00,Monday
69,18115893.676032016
105,8810300.209632013
129,262729.80000000007
166,4273896.018929603
203,4273674.3907024119
216,9305593.4664
240,4652671.3379999999
270,4652922.1284
776,26357551.87619071
1008,0.0
1133,0.0
2,2, 1, 2, 0,18, 0.00,60.00,Monday
69,18117329.666399998
105,8811736.2
129,262729.80000000007
166,4274388.0
203,4274618.4
216,9305593.4664
240,4652671.3379999999
270,4652922.1284
776,18935893.168255755
1008,0.0
1133,0.0
2,2, 1, 2, 0,19, 0.00,60.00,Monday
69,18117329.666399998
105,8811736.2
129,262729.80000000007
166,4274388.0
203,4274618.4
216,9305593.4664
240,4652671.3379999999
270,4652922.1284
776,14257672.155622146
1008,0.0
1133,0.0
2,2, 1, 2, 0,20, 0.00,60.00,Monday
69,9305593.4664
105,0.0
129,0.0
166,0.0
203,0.0
216,9305593.4664
240,4652671.3379999999
270,4652922.1284
776,0.0
1008,0.0
1133,0.0
2,2, 1, 2, 0,21, 0.00,60.00,Monday
69,501943.71157761607
105,0.0
129,0.0
166,0.0
203,0.0
216,501943.71157761607
240,250965.09197172
270,250978.61960589604
776,0.0
1008,0.0
1133,0.0
2,2, 1, 2, 0,22, 0.00,60.00,Monday
69,501943.71157761607
105,0.0
129,0.0
166,0.0
203,0.0
216,501943.71157761607
240,250965.09197172
270,250978.61960589604
776,0.0
1008,0.0
1133,0.0
2,2, 1, 2, 0,23, 0.00,60.00,Monday
69,501943.71157761607
105,0.0
129,0.0
166,0.0
203,0.0
216,501943.71157761607
240,250965.09197172
270,250978.61960589604
776,0.0
1008,0.0
1133,0.0
2,2, 1, 2, 0,24, 0.00,60.00,Monday
69,501943.71157761607
105,0.0
129,0.0
166,0.0
203,0.0
216,501943.71157761607
240,250965.09197172
270,250978.61960589604
776,0.0
1008,0.0
1133,0.0
3,2, 1, 2, 0,Monday
70,231819671.40533433,250971.85578880803, 1,30,9058664.833199999, 8,30
106,105325575.51478058,0.0, 1,30,4405868.1, 8,30
130,3152757.5999999989,0.0, 1,30,131364.90000000003, 8,30
167,51206398.73887319,0.0, 1,30,2137194.0, 8,30
204,50966419.17590744,0.0, 1,30,2137309.2, 8,30
217,126494095.89055379,250971.85578880803, 1,30,4652796.7332, 8,30
241,63245343.405688937,125482.54598586, 1,30,2326335.6689999999, 8,30
271,63248752.484864849,125489.30980294802, 1,30,2326461.0642, 8,30
777,408017880.8649863,0.0, 1,30,20832331.93911558,12,60
1009,0.0,0.0, 1,30,0.0, 1,30
1134,0.0,0.0, 1,30,0.0, 1,30
2,3, 1, 3, 0, 1, 0.00,60.00,Tuesday
69,501943.71157761607
105,0.0
129,0.0
166,0.0
203,0.0
216,501943.71157761607
240,250965.09197172
270,250978.61960589604
776,0.0
1008,0.0
1133,0.0
2,3, 1, 3, 0, 2, 0.00,60.00,Tuesday
69,501943.71157761607
105,0.0
129,0.0
166,0.0
203,0.0
216,501943.71157761607
240,250965.09197172
270,250978.61960589604
776,0.0
1008,0.0
1133,0.0
2,3, 1, 3, 0, 3, 0.00,60.00,Tuesday
69,501943.71157761607
105,0.0
129,0.0
166,0.0
203,0.0
216,501943.71157761607
240,250965.09197172
270,250978.61960589604
776,0.0
1008,0.0
1133,0.0
2,3, 1, 3, 0, 4, 0.00,60.00,Tuesday
69,501943.71157761607
105,0.0
129,0.0
166,0.0
203,0.0
216,501943.71157761607
240,250965.09197172
270,250978.61960589604
776,0.0
1008,0.0
1133,0.0
2,3, 1, 3, 0, 5, 0.00,60.00,Tuesday
69,501943.71157761607
105,0.0
129,0.0
166,0.0
203,0.0
216,501943.71157761607
240,250965.09197172
270,250978.61960589604
776,0.0
1008,0.0
1133,0.0
2,3, 1, 3, 0, 6, 0.00,60.00,Tuesday
69,501943.71157761607
105,0.0
129,0.0
166,0.0
203,0.0
216,501943.71157761607
240,250965.09197172
270,250978.61960589604
776,0.0
1008,0.0
1133,0.0
2,3, 1, 3, 0, 7, 0.00,60.00,Tuesday
69,501943.71157761607
105,0.0
129,0.0
166,0.0
203,0.0
216,501943.71157761607
240,250965.09197172
270,250978.61960589604
776,0.0
1008,0.0
1133,0.0
2,3, 1, 3, 0, 8, 0.00,60.00,Tuesday
69,18117329.666399998
105,8811736.2
129,262729.80000000007
166,4274388.0
203,4274618.4
216,9305593.4664
240,4652671.3379999999
270,4652922.1284
776,30368443.22021389
1008,0.0
1133,0.0
2,3, 1, 3, 0, 9, 0.00,60.00,Tuesday
69,18112226.946367686
105,8806633.479967688
129,262729.80000000007
166,4272740.9737348719
203,4271162.706232816
216,9305593.4664
240,4652671.3379999999
270,4652922.1284
776,26966200.22959844
1008,0.0
1133,0.0
2,3, 1, 3, 0,10, 0.00,60.00,Tuesday
69,18096360.61507282
105,8790767.148672823
129,262729.80000000007
166,4268308.374511511
203,4259728.974161311
216,9305593.4664
240,4652671.3379999999
270,4652922.1284
776,26651554.305252777
1008,0.0
1133,0.0
2,3, 1, 3, 0,11, 0.00,60.00,Tuesday
69,18076792.33130048
105,8771198.864900481
129,262729.80000000007
166,4264189.266758129
203,4244279.798142351
216,9305593.4664
240,4652671.3379999999
270,4652922.1284
776,22570357.41519258
1008,0.0
1133,0.0
2,3, 1, 3, 0,12, 0.00,60.00,Tuesday
69,18062135.307160416
105,8756541.840760414
129,262729.80000000007
166,4261810.621215384
203,4232001.41954503
216,9305593.4664
240,4652671.3379999999
270,4652922.1284
776,19277735.186886185
1008,0.0
1133,0.0
2,3, 1, 3, 0,13, 0.00,60.00,Tuesday
69,18053713.482815856
105,8748120.016415857
129,262729.80000000007
166,4260722.336382026
203,4224667.88003383
216,9305593.4664
240,4652671.3379999999
270,4652922.1284
776,14049885.300439664
1008,0.0
1133,0.0
2,3, 1, 3, 0,14, 0.00,60.00,Tuesday
69,18047366.286786446
105,8741772.820386446
129,262729.80000000007
166,4260034.4071694449
203,4219008.613217002
216,9305593.4664
240,4652671.3379999999
270,4652922.1284
776,12110241.457134279
1008,0.0
1133,0.0
2,3, 1, 3, 0,15, 0.00,60.00,Tuesday
69,18062102.521156677
105,8756509.054756679
129,262729.80000000007
166,4262277.79455803
203,4231501.460198648
216,9305593.4664
240,4652671.3379999999
270,4652922.1284
776,12849788.380686712
1008,0.0
1133,0.0
2,3, 1, 3, 0,16, 0.00,60.00,Tuesday
69,18091487.433617288
105,8785893.967217287
129,262729.80000000007
166,4267698.636860881
203,4255465.530356407
216,9305593.4664
240,4652671.3379999999
270,4652922.1284
776,11266683.412959889
1008,0.0
1133,0.0
2,3, 1, 3, 0,17, 0.00,60.00,Tuesday
69,18115117.213548013
105,8809523.747148015
129,262729.80000000007
166,4273665.062363425
203,4273128.88478459
216,9305593.4664
240,4652671.3379999999
270,4652922.1284
776,10841980.715492078
1008,0.0
1133,0.0
2,3, 1, 3, 0,18, 0.00,60.00,Tuesday
69,18117329.666399998
105,8811736.2
129,262729.80000000007
166,4274388.0
203,4274618.4
216,9305593.4664
240,4652671.3379999999
270,4652922.1284
776,5107181.616145707
1008,0.0
1133,0.0
2,3, 1, 3, 0,19, 0.00,60.00,Tuesday
69,18117329.666399998
105,8811736.2
129,262729.80000000007
166,4274388.0
203,4274618.4
216,9305593.4664
240,4652671.3379999999
270,4652922.1284
776,1845632.111297156
1008,0.0
1133,0.0
2,3, 1, 3, 0,20, 0.00,60.00,Tuesday
69,9305593.4664
105,0.0
129,0.0
166,0.0
203,0.0
216,9305593.4664
240,4652671.3379999999
270,4652922.1284
776,0.0
1008,0.0
1133,0.0
2,3, 1, 3, 0,21, 0.00,60.00,Tuesday
69,501943.71157761607
105,0.0
129,0.0
166,0.0
203,0.0
216,501943.71157761607
240,250965.09197172
270,250978.61960589604
776,0.0
1008,0.0
1133,0.0
2,3, 1, 3, 0,22, 0.00,60.00,Tuesday
69,501943.71157761607
105,0.0
129,0.0
166,0.0
203,0.0
216,501943.71157761607
240,250965.09197172
270,250978.61960589604
776,0.0
1008,0.0
1133,0.0
2,3, 1, 3, 0,23, 0.00,60.00,Tuesday
69,501943.71157761607
105,0.0
129,0.0
166,0.0
203,0.0
216,501943.71157761607
240,250965.09197172
270,250978.61960589604
776,0.0
1008,0.0
1133,0.0
2,3, 1, 3, 0,24, 0.00,60.00,Tuesday
69,501943.71157761607
105,0.0
129,0.0
166,0.0
203,0.0
216,501943.71157761607
240,250965.09197172
270,250978.61960589604
776,0.0
1008,0.0
1133,0.0
3,3, 1, 3, 0,Tuesday
70,231896265.43077944,250971.85578880803, 1,30,9058664.833199999, 8,30
106,105402169.54022564,0.0, 1,30,4405868.1, 8,30
130,3152757.5999999989,0.0, 1,30,131364.90000000003, 8,30
167,51214611.4735537,0.0, 1,30,2137194.0, 8,30
204,51034800.466671999,0.0, 1,30,2137309.2, 8,30
217,126494095.89055379,250971.85578880803, 1,30,4652796.7332, 8,30
241,63245343.405688937,125482.54598586, 1,30,2326335.6689999999, 8,30
271,63248752.484864849,125489.30980294802, 1,30,2326461.0642, 8,30
777,193905683.35129936,0.0, 1,30,15666285.08075235, 8,60
1009,0.0,0.0, 1,30,0.0, 1,30
1134,0.0,0.0, 1,30,0.0, 1,30
2,4, 1, 4, 0, 1, 0.00,60.00,Wednesday
69,501943.71157761607
105,0.0
129,0.0
166,0.0
203,0.0
216,501943.71157761607
240,250965.09197172
270,250978.61960589604
776,0.0
1008,0.0
1133,0.0
2,4, 1, 4, 0, 2, 0.00,60.00,Wednesday
69,501943.71157761607
105,0.0
129,0.0
166,0.0
203,0.0
216,501943.71157761607
240,250965.09197172
270,250978.61960589604
776,0.0
1008,0.0
1133,0.0
2,4, 1, 4, 0, 3, 0.00,60.00,Wednesday
69,501943.71157761607
105,0.0
129,0.0
166,0.0
203,0.0
216,501943.71157761607
240,250965.09197172
270,250978.61960589604
776,0.0
1008,0.0
1133,0.0
2,4, 1, 4, 0, 4, 0.00,60.00,Wednesday
69,501943.71157761607
105,0.0
129,0.0
166,0.0
203,0.0
216,501943.71157761607
240,250965.09197172
270,250978.61960589604
776,0.0
1008,0.0
1133,0.0
2,4, 1, 4, 0, 5, 0.00,60.00,Wednesday
69,501943.71157761607
105,0.0
129,0.0
166,0.0
203,0.0
216,501943.71157761607
240,250965.09197172
270,250978.61960589604
776,0.0
1008,0.0
1133,0.0
2,4, 1, 4, 0, 6, 0.00,60.00,Wednesday
69,501943.71157761607
105,0.0
129,0.0
166,0.0
203,0.0
216,501943.71157761607
240,250965.09197172
270,250978.61960589604
776,0.0
1008,0.0
1133,0.0
2,4, 1, 4, 0, 7, 0.00,60.00,Wednesday
69,501943.71157761607
105,0.0
129,0.0
166,0.0
203,0.0
216,501943.71157761607
240,250965.09197172
270,250978.61960589604
776,0.0
1008,0.0
1133,0.0
2,4, 1, 4, 0, 8, 0.00,60.00,Wednesday
69,18117329.666399998
105,8811736.2
129,262729.80000000007
166,4274388.0
203,4274618.4
216,9305593.4664
240,4652671.3379999999
270,4652922.1284
776,15639079.797690534
1008,0.0
1133,0.0
2,4, 1, 4, 0, 9, 0.00,60.00,Wednesday
69,18098744.71139265
105,8793151.244992651
129,262729.80000000007
166,4270092.09373219
203,4260329.351260461
216,9305593.4664
240,4652671.3379999999
270,4652922.1284
776,13835822.510103818
1008,0.0
1133,0.0
2,4, 1, 4, 0,10, 0.00,60.00,Wednesday
69,18038422.53599975
105,8732829.069599752
129,262729.80000000007
166,4259651.003133571
203,4210448.266466179
216,9305593.4664
240,4652671.3379999999
270,4652922.1284
776,16499042.095638734
1008,0.0
1133,0.0
2,4, 1, 4, 0,11, 0.00,60.00,Wednesday
69,18012334.207549789
105,8706740.741149789
129,262729.80000000007
166,4256003.629714448
203,4188007.311435341
216,9305593.4664
240,4652671.3379999999
270,4652922.1284
776,14543930.379530296
1008,0.0
1133,0.0
2,4, 1, 4, 0,12, 0.00,60.00,Wednesday
69,18022688.77880764
105,8717095.312407643
129,262729.80000000007
166,4256608.820654785
203,4197756.691752858
216,9305593.4664
240,4652671.3379999999
270,4652922.1284
776,13027900.772162114
1008,0.0
1133,0.0
2,4, 1, 4, 0,13, 0.00,60.00,Wednesday
69,18049094.974806549
105,8743501.508406548
129,262729.80000000007
166,4260112.730032716
203,4220658.978373831
216,9305593.4664
240,4652671.3379999999
270,4652922.1284
776,9007472.407330934
1008,0.0
1133,0.0
2,4, 1, 4, 0,14, 0.00,60.00,Wednesday
69,18029404.81278281
105,8723811.346382814
129,262729.80000000007
166,4257806.639477488
203,4203274.906905325
216,9305593.4664
240,4652671.3379999999
270,4652922.1284
776,8060242.082879673
1008,0.0
1133,0.0
2,4, 1, 4, 0,15, 0.00,60.00,Wednesday
69,18042416.37569786
105,8736822.909297862
129,262729.80000000007
166,4259494.344205622
203,4214598.765092239
216,9305593.4664
240,4652671.3379999999
270,4652922.1284
776,9842907.436766129
1008,0.0
1133,0.0
2,4, 1, 4, 0,16, 0.00,60.00,Wednesday
69,18080971.787516208
105,8775378.321116209
129,262729.80000000007
166,4265732.796102232
203,4246915.725013977
216,9305593.4664
240,4652671.3379999999
270,4652922.1284
776,9032261.398229164
1008,0.0
1133,0.0
2,4, 1, 4, 0,17, 0.00,60.00,Wednesday
69,18114297.4667512
105,8808704.000351202
129,262729.80000000007
166,4273436.173200072
203,4272538.02715113
216,9305593.4664
240,4652671.3379999999
270,4652922.1284
776,8908537.970980395
1008,0.0
1133,0.0
2,4, 1, 4, 0,18, 0.00,60.00,Wednesday
69,18117329.666399998
105,8811736.2
129,262729.80000000007
166,4274388.0
203,4274618.4
216,9305593.4664
240,4652671.3379999999
270,4652922.1284
776,3461970.810646996
1008,0.0
1133,0.0
2,4, 1, 4, 0,19, 0.00,60.00,Wednesday
69,18117329.666399998
105,8811736.2
129,262729.80000000007
166,4274388.0
203,4274618.4
216,9305593.4664
240,4652671.3379999999
270,4652922.1284
776,932524.2798814138
1008,0.0
1133,0.0
2,4, 1, 4, 0,20, 0.00,60.00,Wednesday
69,9305593.4664
105,0.0
129,0.0
166,0.0
203,0.0
216,9305593.4664
240,4652671.3379999999
270,4652922.1284
776,0.0
1008,0.0
1133,0.0
2,4, 1, 4, 0,21, 0.00,60.00,Wednesday
69,501943.71157761607
105,0.0
129,0.0
166,0.0
203,0.0
216,501943.71157761607
240,250965.09197172
270,250978.61960589604
776,0.0
1008,0.0
1133,0.0
2,4, 1, 4, 0,22, 0.00,60.00,Wednesday
69,501943.71157761607
105,0.0
129,0.0
166,0.0
203,0.0
216,501943.71157761607
240,250965.09197172
270,250978.61960589604
776,0.0
1008,0.0
1133,0.0
2,4, 1, 4, 0,23, 0.00,60.00,Wednesday
69,501943.71157761607
105,0.0
129,0.0
166,0.0
203,0.0
216,501943.71157761607
240,250965.09197172
270,250978.61960589604
776,0.0
1008,0.0
1133,0.0
2,4, 1, 4, 0,24, 0.00,60.00,Wednesday
69,501943.71157761607
105,0.0
129,0.0
166,0.0
203,0.0
216,501943.71157761607
240,250965.09197172
270,250978.61960589604
776,0.0
1008,0.0
1133,0.0
3,4, 1, 4, 0,Wednesday
70,231667338.9442582,250971.85578880803, 1,30,9058664.833199999, 8,30
106,105173243.05370444,0.0, 1,30,4405868.1, 8,30
130,3152757.5999999989,0.0, 1,30,131364.90000000003, 8,30
167,51182102.23025312,0.0, 1,30,2137194.0, 8,30
204,50838383.22345136,0.0, 1,30,2137309.2, 8,30
217,126494095.89055379,250971.85578880803, 1,30,4652796.7332, 8,30
241,63245343.405688937,125482.54598586, 1,30,2326335.6689999999, 8,30
271,63248752.484864849,125489.30980294802, 1,30,2326461.0642, 8,30
777,122791691.94184017,0.0, 1,30,9058454.403479647, 8,30
1009,0.0,0.0, 1,30,0.0, 1,30
1134,0.0,0.0, 1,30,0.0, 1,30
2,5, 1, 5, 0, 1, 0.00,60.00,Thursday
69,501943.71157761607
105,0.0
129,0.0
166,0.0
203,0.0
216,501943.71157761607
240,250965.09197172
270,250978.61960589604
776,0.0
1008,0.0
1133,0.0
2,5, 1, 5, 0, 2, 0.00,60.00,Thursday
69,501943.71157761607
105,0.0
129,0.0
166,0.0
203,0.0
216,501943.71157761607
240,250965.09197172
270,250978.61960589604
776,0.0
1008,0.0
1133,0.0
2,5, 1, 5, 0, 3, 0.00,60.00,Thursday
69,501943.71157761607
105,0.0
129,0.0
166,0.0
203,0.0
216,501943.71157761607
240,250965.09197172
270,250978.61960589604
776,0.0
1008,0.0
1133,0.0
2,5, 1, 5, 0, 4, 0.00,60.00,Thursday
69,501943.71157761607
105,0.0
129,0.0
166,0.0
203,0.0
216,501943.71157761607
240,250965.09197172
270,250978.61960589604
776,0.0
1008,0.0
1133,0.0
2,5, 1, 5, 0, 5, 0.00,60.00,Thursday
69,501943.71157761607
105,0.0
129,0.0
166,0.0
203,0.0
216,501943.71157761607
240,250965.09197172
270,250978.61960589604
776,0.0
1008,0.0
1133,0.0
2,5, 1, 5, 0, 6, 0.00,60.00,Thursday
69,501943.71157761607
105,0.0
129,0.0
166,0.0
203,0.0
216,501943.71157761607
240,250965.09197172
270,250978.61960589604
776,0.0
1008,0.0
1133,0.0
2,5, 1, 5, 0, 7, 0.00,60.00,Thursday
69,501943.71157761607
105,0.0
129,0.0
166,0.0
203,0.0
216,501943.71157761607
240,250965.09197172
270,250978.61960589604
776,0.0
1008,0.0
1133,0.0
2,5, 1, 5, 0, 8, 0.00,60.00,Thursday
69,18117329.666399998
105,8811736.2
129,262729.80000000007
166,4274388.0
203,4274618.4
216,9305593.4664
240,4652671.3379999999
270,4652922.1284
776,18304978.0242535
1008,0.0
1133,0.0
2,5, 1, 5, 0, 9, 0.00,60.00,Thursday
69,18098450.490986945
105,8792857.024586942
129,262729.80000000007
166,4270022.334618491
203,4260104.889968453
216,9305593.4664
240,4652671.3379999999
270,4652922.1284
776,15319009.68011587
1008,0.0
1133,0.0
2,5, 1, 5, 0,10, 0.00,60.00,Thursday
69,18030954.44612057
105,8725360.979720574
129,262729.80000000007
166,4258799.588791835
203,4203831.59092874
216,9305593.4664
240,4652671.3379999999
270,4652922.1284
776,17240074.10804812
1008,0.0
1133,0.0
2,5, 1, 5, 0,11, 0.00,60.00,Thursday
69,17951386.613638838
105,8645793.14723884
129,262729.80000000007
166,4250743.860977279
203,4132319.4862615608
216,9305593.4664
240,4652671.3379999999
270,4652922.1284
776,14018813.820505042
1008,0.0
1133,0.0
2,5, 1, 5, 0,12, 0.00,60.00,Thursday
69,17891305.66485976
105,8585712.198459764
129,262729.80000000007
166,4246614.312034588
203,4076368.086425175
216,9305593.4664
240,4652671.3379999999
270,4652922.1284
776,11465822.311267609
1008,0.0
1133,0.0
2,5, 1, 5, 0,13, 0.00,60.00,Thursday
69,17872853.956083985
105,8567260.489683986
129,262729.80000000007
166,4245998.16333186
203,4058532.526352125
216,9305593.4664
240,4652671.3379999999
270,4652922.1284
776,6750366.016058968
1008,0.0
1133,0.0
2,5, 1, 5, 0,14, 0.00,60.00,Thursday
69,17908603.35553749
105,8603009.889137488
129,262729.80000000007
166,4249301.200521697
203,4090978.888615792
216,9305593.4664
240,4652671.3379999999
270,4652922.1284
776,5859541.581364004
1008,0.0
1133,0.0